LAMMPS (20 Nov 2019)
read_restart rsrc.inp
  restoring atom style sphere from restart
  orthogonal box = (-5 -5 0) to (5 5 1)
  2 by 2 by 1 MPI processor grid
  restoring pair style gran/hooke/history from restart
  41328 atoms
  read_restart CPU = 0.0209615 secs

variable R file R
variable Lz equal 1.0
variable sx atom mass*vx*vx
variable sy atom mass*vy*vy
variable sz atom mass*vx*vz
variable sxy atom mass*vx*vy
variable ux atom vx*vx
variable uy atom vy*vy
variable uz atom vz*vz
variable th equal 25*PI/180
variable gx equal sin(${th})
variable gx equal sin(0.436332312998582)
variable gy equal -cos(${th})
variable gy equal -cos(0.436332312998582)

comm_modify vel yes
neighbor 0.03 bin
neigh_modify binsize 0.15 every 5

pair_style gran/hooke/history 2568000.0 NULL 4952.0 0.0 0.5 0
pair_coeff * *

timestep 1e-6
reset_timestep 0

compute	s all stress/atom NULL pair
compute ch all chunk/atom bin/2d x lower 0.1 y lower 0.1

fix 1 all nve/sphere
fix 2 all gravity 981 vector ${gx} ${gy} 0
fix 2 all gravity 981 vector 0.422618261740699 ${gy} 0
fix 2 all gravity 981 vector 0.422618261740699 -0.90630778703665 0
fix 3 all wall/gran hooke/history 2568000.0 NULL 4952.0 0.0 0.5 0 zcylinder ${R} shear x 0.025
fix 3 all wall/gran hooke/history 2568000.0 NULL 4952.0 0.0 0.5 0 zcylinder 5 shear x 0.025
Resetting peratom fix info from restart file:
  fix style: wall/gran, fix ID: 3
fix av all ave/chunk 2 50 100 ch mass vx vy vz v_ux v_uy v_uz c_s[1] c_s[2] c_s[3] c_s[4] v_sx v_sy v_sz v_sxy ave running file v.dat overwrite

dump 1 all custom 1000 xv.dump id radius x y z vx vy vz
thermo 1000
thermo_style custom step atoms ke

run_style verlet
run 200000
Resetting peratom fix info from restart file:
  fix style: NEIGH_HISTORY, fix ID: NEIGH_HISTORY
Unused restart file peratom fix info:
  fix style: STORE, fix ID: ch_COMPUTE_STORE
Neighbor list info ...
  update every 5 steps, delay 10 steps, check yes
  max neighbors/atom: 2000, page size: 100000
  master list distance cutoff = 0.14
  ghost atom cutoff = 0.14
  binsize = 0.15, bins = 67 67 7
  1 neighbor lists, perpetual/occasional/extra = 1 0 0
  (1) pair gran/hooke/history, perpetual
      attributes: half, newton on, size, history
      pair build: half/size/bin/newton
      stencil: half/bin/3d/newton
      bin: standard
Per MPI rank memory allocation (min/avg/max) = 12.11 | 18.07 | 24.06 Mbytes
Step Atoms KinEng 
       0    41328    155.01585 
    1000    41328    166.55303 
    2000    41328    191.69247 
    3000    41328    193.23149 
    4000    41328    174.50142 
    5000    41328    171.61368 
    6000    41328    183.05389 
    7000    41328    177.34876 
    8000    41328    158.78441 
    9000    41328    157.19425 
   10000    41328    180.72081 
   11000    41328     197.7283 
   12000    41328    184.49752 
   13000    41328    173.80816 
   14000    41328    191.97482 
   15000    41328    201.65313 
   16000    41328    181.54059 
   17000    41328    162.23072 
   18000    41328    171.71488 
   19000    41328    199.22111 
   20000    41328    204.09828 
   21000    41328    181.50579 
   22000    41328    174.23597 
   23000    41328    185.84441 
   24000    41328    186.41596 
   25000    41328    166.07195 
   26000    41328    154.60406 
   27000    41328    172.20802 
   28000    41328    195.66867 
   29000    41328    190.29438 
   30000    41328    175.33023 
   31000    41328     186.7772 
   32000    41328    204.91311 
   33000    41328    194.85213 
   34000    41328    170.44439 
   35000    41328    165.93747 
   36000    41328    189.71852 
   37000    41328    207.73582 
   38000    41328    194.08557 
   39000    41328    180.08558 
   40000    41328     192.7988 
   41000    41328    199.86895 
   42000    41328    183.70737 
   43000    41328    164.69987 
   44000    41328    172.25343 
   45000    41328     198.1763 
   46000    41328    204.58245 
   47000    41328    187.24401 
   48000    41328     184.2037 
   49000    41328    196.58437 
   50000    41328    196.85182 
   51000    41328    182.08262 
   52000    41328    170.46986 
   53000    41328    180.19981 
   54000    41328    196.04715 
   55000    41328     191.6423 
   56000    41328    179.88199 
   57000    41328    185.32552 
   58000    41328    194.83833 
   59000    41328    185.83512 
   60000    41328     170.2833 
   61000    41328    171.14192 
   62000    41328    188.81793 
   63000    41328    195.47344 
   64000    41328    183.44603 
   65000    41328    176.73705 
   66000    41328     184.0912 
   67000    41328    183.96982 
   68000    41328    169.62169 
   69000    41328    163.10551 
   70000    41328    175.28987 
   71000    41328    189.02921 
   72000    41328    182.70372 
   73000    41328    169.76574 
   74000    41328     174.8038 
   75000    41328    185.48597 
   76000    41328     178.6945 
   77000    41328    164.58274 
   78000    41328    165.11167 
   79000    41328    182.01507 
   80000    41328    189.80098 
   81000    41328    176.86605 
   82000    41328    167.61398 
   83000    41328    175.33344 
   84000    41328    180.16969 
   85000    41328    170.51694 
   86000    41328    160.82097 
   87000    41328    169.42705 
   88000    41328    189.88396 
   89000    41328     191.7878 
   90000    41328    174.42219 
   91000    41328     174.4628 
   92000    41328    188.82307 
   93000    41328    188.35523 
   94000    41328    172.69453 
   95000    41328    165.20059 
   96000    41328    179.80893 
   97000    41328    196.03052 
   98000    41328    189.16294 
   99000    41328    175.54018 
  100000    41328    180.51497 
  101000    41328    190.10584 
  102000    41328    182.10113 
  103000    41328      168.603 
  104000    41328    170.10415 
  105000    41328    187.32439 
  106000    41328    195.53133 
  107000    41328    184.02323 
  108000    41328    176.64948 
  109000    41328    183.24373 
  110000    41328    185.13493 
  111000    41328    174.14311 
  112000    41328    167.50292 
  113000    41328    177.71469 
  114000    41328    192.71942 
  115000    41328    187.96406 
  116000    41328    176.33277 
  117000    41328    177.95515 
  118000    41328    186.77413 
  119000    41328    180.84976 
  120000    41328    167.53551 
  121000    41328    169.91709 
  122000    41328    189.31754 
  123000    41328    200.24373 
  124000    41328    185.88204 
  125000    41328    174.43197 
  126000    41328     180.7348 
  127000    41328    184.68386 
  128000    41328    175.03767 
  129000    41328    165.98677 
  130000    41328    176.35009 
  131000    41328    194.58194 
  132000    41328    192.72501 
  133000    41328    178.07373 
  134000    41328    178.69522 
  135000    41328    187.05875 
  136000    41328    182.98086 
  137000    41328    169.34995 
  138000    41328     166.4254 
  139000    41328    184.03676 
  140000    41328    197.82954 
  141000    41328    187.26549 
  142000    41328    174.84759 
  143000    41328    181.15601 
  144000    41328    183.81346 
  145000    41328    171.58586 
  146000    41328    162.99492 
  147000    41328    174.46979 
  148000    41328    194.00928 
  149000    41328    190.89493 
  150000    41328    174.18567 
  151000    41328    174.58329 
  152000    41328    185.12047 
  153000    41328    180.44615 
  154000    41328    166.89306 
  155000    41328    165.97836 
  156000    41328    183.51664 
  157000    41328    193.03445 
  158000    41328    181.74127 
  159000    41328    174.10257 
  160000    41328    186.07256 
  161000    41328    191.58726 
  162000    41328    179.07873 
  163000    41328    167.50783 
  164000    41328     175.7586 
  165000    41328    196.07056 
  166000    41328    198.22875 
  167000    41328    180.71872 
  168000    41328    170.73411 
  169000    41328    181.71814 
  170000    41328    183.45127 
  171000    41328    166.81448 
  172000    41328    157.59198 
  173000    41328    171.25363 
  174000    41328    191.59165 
  175000    41328    189.47555 
  176000    41328    173.18554 
  177000    41328     172.6367 
  178000    41328    182.15014 
  179000    41328    180.27049 
  180000    41328    165.80532 
  181000    41328    160.95628 
  182000    41328     176.4188 
  183000    41328    189.46228 
  184000    41328    178.81159 
  185000    41328    166.61475 
  186000    41328    172.34109 
  187000    41328    179.50618 
  188000    41328    170.39705 
  189000    41328    157.91393 
  190000    41328     163.2911 
  191000    41328    180.71348 
  192000    41328    184.55549 
  193000    41328    170.23792 
  194000    41328    165.40504 
  195000    41328    175.30092 
  196000    41328    176.50609 
  197000    41328    163.82178 
  198000    41328    155.97259 
  199000    41328    166.00311 
  200000    41328    179.96787 
Loop time of 1957.35 on 4 procs for 200000 steps with 41328 atoms

99.7% CPU use with 4 MPI tasks x no OpenMP threads

MPI task timing breakdown:
Section |  min time  |  avg time  |  max time  |%varavg| %total
---------------------------------------------------------------
Pair    | 0.071567   | 537.94     | 1116.8     |2322.0 | 27.48
Neigh   | 0.0019341  | 0.87968    | 1.7966     |  93.6 |  0.04
Comm    | 0.5039     | 469.22     | 1521.7     |2824.9 | 23.97
Output  | 8.4826     | 14.581     | 16.615     |  92.2 |  0.74
Modify  | 76.231     | 416.26     | 709.57     |1294.9 | 21.27
Other   |            | 518.5      |            |       | 26.49

Nlocal:    10332 ave 21218 max 0 min
Histogram: 2 0 0 0 0 0 0 0 0 2
Nghost:    3372.25 ave 6880 max 0 min
Histogram: 2 0 0 0 0 0 0 0 0 2
Neighs:    55699.2 ave 113801 max 0 min
Histogram: 2 0 0 0 0 0 0 0 0 2

Total # of neighbors = 222797
Ave neighs/atom = 5.39095
Neighbor list builds = 222
Dangerous builds = 0

write_restart rsrc.inp

Total wall time: 0:32:37
